# vtk DataFile Version 2.0
unstructured grid
ASCII
DATASET UNSTRUCTURED_GRID
POINTS 25 float
0.5                   0                      0.0
0                     0.5                    0.0
-0.5                  0                      0.0
0                     -0.5                   0.0
0.191342              -0.46194               0.0
0.353553              -0.353553              0.0
0.46194               -0.191342              0.0
0.46194               0.191342               0.0
0.353553              0.353553               0.0
0.191342              0.46194                0.0
-0.191342             0.46194                0.0
-0.353553             0.353553               0.0
-0.46194              0.191342               0.0
-0.46194              -0.191342              0.0
-0.353553             -0.353553              0.0
-0.191342             -0.46194               0.0
0.000482792           0.000482792            0.0
0.309721              5.70511e-05            0.0
0.219212              0.219212               0.0
-0.309219             0.000444729            0.0
-0.21877              -0.21877               0.0
5.70511e-05           0.309721               0.0
0.000444729           -0.309219              0.0
-0.218427             0.218946               0.0
0.218946              -0.218427              0.0

CELLS 32 128
3 8 7 18
3 7 17 18
3 7 0 17
3 18 17 16
3 14 13 20
3 13 19 20
3 13 2 19
3 20 19 16
3 1 9 21
3 9 18 21
3 9 8 18
3 21 18 16
3 3 15 22
3 15 20 22
3 15 14 20
3 22 20 16
3 16 23 21
3 23 10 21
3 23 11 10
3 21 10 1
3 2 12 19
3 12 23 19
3 12 11 23
3 19 23 16
3 5 24 6
3 24 17 6
3 24 16 17
3 6 17 0
3 5 4 24
3 4 22 24
3 4 3 22
3 24 22 16

CELL_TYPES 32
5
5
5
5
5
5
5
5
5
5
5
5
5
5
5
5
5
5
5
5
5
5
5
5
5
5
5
5
5
5
5
5

POINT_DATA 25

SCALARS value float
LOOKUP_TABLE default
0.0000000
1.0000000
2.0000000
3.0000000
4.0000000
5.0000000
6.0000000
7.0000000
8.0000000
9.0000000
10.000000
11.000000
12.000000
13.000000
14.000000
15.000000
16.000000
17.000000
18.000000
19.000000
20.000000
21.000000
22.000000
23.000000
24.000000


SCALARS other float
LOOKUP_TABLE default
0.50000000
0.0000000
-0.50000000
0.0000000
0.19134172
0.35355339
0.46193977
0.46193977
0.35355339
0.19134172
-0.19134172
-0.35355339
-0.46193977
-0.46193977
-0.35355339
-0.19134172
0.00048279166
0.30972099
0.21921230
-0.30921921
-0.21876999
5.7051066e-05
0.00044472902
-0.21842655
0.21894622


