# vtk DataFile Version 2.0
unstructured grid
ASCII
DATASET UNSTRUCTURED_GRID
POINTS 253 float
0.000000 0.000000 0
1.000000 0.000000 0
0.000000 1.000000 0
0.947368 0.000000 0
0.894737 0.000000 0
0.842105 0.000000 0
0.789474 0.000000 0
0.736842 0.000000 0
0.684211 0.000000 0
0.631579 0.000000 0
0.578947 0.000000 0
0.526316 0.000000 0
0.473684 0.000000 0
0.421053 0.000000 0
0.368421 0.000000 0
0.315789 0.000000 0
0.263158 0.000000 0
0.210526 0.000000 0
0.157895 0.000000 0
0.105263 0.000000 0
0.052632 0.000000 0
0.000000 0.052632 0
0.000000 0.105263 0
0.000000 0.157895 0
0.000000 0.210526 0
0.000000 0.263158 0
0.000000 0.315789 0
0.000000 0.368421 0
0.000000 0.421053 0
0.000000 0.473684 0
0.000000 0.526316 0
0.000000 0.578947 0
0.000000 0.631579 0
0.000000 0.684211 0
0.000000 0.736842 0
0.000000 0.789474 0
0.000000 0.842105 0
0.000000 0.894737 0
0.000000 0.947368 0
0.035714 0.964286 0
0.071429 0.928571 0
0.107143 0.892857 0
0.142857 0.857143 0
0.178571 0.821429 0
0.214286 0.785714 0
0.250000 0.750000 0
0.285714 0.714286 0
0.321429 0.678571 0
0.357143 0.642857 0
0.392857 0.607143 0
0.428571 0.571429 0
0.464286 0.535714 0
0.500000 0.500000 0
0.535714 0.464286 0
0.571429 0.428571 0
0.607143 0.392857 0
0.642857 0.357143 0
0.678571 0.321429 0
0.714286 0.285714 0
0.750000 0.250000 0
0.785714 0.214286 0
0.821429 0.178571 0
0.857143 0.142857 0
0.892857 0.107143 0
0.928571 0.071429 0
0.964286 0.035714 0
0.490917 0.451358 0
0.051368 0.281459 0
0.340635 0.046740 0
0.376473 0.564200 0
0.593781 0.344747 0
0.047620 0.447264 0
0.499964 0.043848 0
0.273874 0.665248 0
0.183806 0.044977 0
0.694476 0.233419 0
0.046464 0.605806 0
0.604107 0.052667 0
0.047733 0.183046 0
0.200379 0.733734 0
0.707321 0.053003 0
0.046248 0.711301 0
0.776526 0.165620 0
0.139566 0.804147 0
0.079494 0.042140 0
0.817414 0.047371 0
0.047372 0.816302 0
0.876986 0.050391 0
0.050562 0.876562 0
0.840825 0.095289 0
0.790945 0.090799 0
0.764148 0.047745 0
0.046017 0.763264 0
0.091277 0.738319 0
0.093622 0.686490 0
0.144038 0.718524 0
0.140517 0.659405 0
0.189343 0.682134 0
0.184349 0.630517 0
0.138669 0.606057 0
0.183051 0.579906 0
0.138358 0.553980 0
0.183714 0.528870 0
0.227463 0.555610 0
0.139157 0.501935 0
0.185117 0.477265 0
0.140933 0.449657 0
0.187090 0.425621 0
0.230676 0.452984 0
0.232441 0.401449 0
0.275880 0.428821 0
0.277738 0.377373 0
0.234081 0.349322 0
0.280253 0.325985 0
0.238250 0.297287 0
0.283375 0.275302 0
0.325162 0.302851 0
0.326777 0.252337 0
0.369825 0.279370 0
0.371267 0.227900 0
0.241951 0.242394 0
0.414969 0.255835 0
0.417526 0.205177 0
0.460054 0.232390 0
0.320862 0.404890 0
0.323178 0.197643 0
0.458191 0.283213 0
0.186622 0.319269 0
0.462432 0.182509 0
0.504492 0.208702 0
0.421108 0.155393 0
0.505847 0.159396 0
0.548953 0.183932 0
0.546952 0.235080 0
0.319171 0.456008 0
0.363818 0.432163 0
0.367826 0.330337 0
0.144192 0.397799 0
0.592451 0.211976 0
0.594815 0.160041 0
0.092898 0.527290 0
0.588530 0.262978 0
0.544575 0.283983 0
0.636290 0.189159 0
0.641963 0.138294 0
0.685490 0.174533 0
0.362044 0.483163 0
0.318031 0.506788 0
0.407175 0.459518 0
0.408011 0.408194 0
0.690222 0.109642 0
0.600075 0.108487 0
0.096117 0.420773 0
0.101175 0.362208 0
0.166593 0.766596 0
0.406962 0.517676 0
0.046570 0.658683 0
0.412951 0.306958 0
0.456445 0.335126 0
0.502013 0.310066 0
0.503218 0.367263 0
0.451841 0.385385 0
0.238012 0.699433 0
0.410454 0.357867 0
0.657862 0.044559 0
0.549878 0.044099 0
0.524406 0.084457 0
0.477432 0.087941 0
0.448068 0.046593 0
0.422106 0.099912 0
0.394166 0.047855 0
0.364713 0.093884 0
0.312498 0.092692 0
0.335186 0.142385 0
0.288225 0.046011 0
0.261180 0.091187 0
0.236088 0.045449 0
0.209633 0.090516 0
0.235587 0.136512 0
0.183787 0.135260 0
0.209884 0.179049 0
0.158971 0.180760 0
0.131297 0.135016 0
0.263989 0.187114 0
0.190413 0.226006 0
0.133447 0.227446 0
0.158856 0.272300 0
0.107325 0.273646 0
0.132113 0.315983 0
0.080119 0.230176 0
0.157351 0.089710 0
0.104243 0.088304 0
0.078427 0.134273 0
0.229135 0.504525 0
0.273452 0.532201 0
0.269670 0.583754 0
0.322021 0.562308 0
0.225754 0.604403 0
0.093083 0.632711 0
0.322915 0.353774 0
0.639167 0.240666 0
0.046473 0.553091 0
0.046819 0.500366 0
0.502713 0.258906 0
0.048859 0.393163 0
0.048241 0.339258 0
0.047549 0.084494 0
0.274391 0.480221 0
0.365648 0.381204 0
0.104999 0.181786 0
0.523796 0.417120 0
0.557717 0.380411 0
0.627723 0.301202 0
0.131342 0.044189 0
0.308098 0.622570 0
0.737690 0.197090 0
0.189180 0.374571 0
0.093924 0.474548 0
0.287854 0.230958 0
0.549158 0.128396 0
0.375325 0.177037 0
0.285048 0.135943 0
0.096451 0.839060 0
0.092658 0.579822 0
0.742892 0.095298 0
0.453079 0.482882 0
0.091203 0.787346 0
0.809608 0.133175 0
0.733933 0.144683 0
0.922390 0.031507 0
0.031541 0.922305 0
0.644884 0.087904 0
0.351318 0.599815 0
0.465568 0.133998 0
0.670845 0.276486 0
0.546935 0.331906 0
0.088044 0.314511 0
0.035844 0.233673 0
0.383688 0.133722 0
0.203218 0.271451 0
0.565525 0.083621 0
0.449134 0.433028 0
0.150656 0.353966 0
0.228760 0.651195 0
0.034742 0.132994 0
0.580309 0.304963 0
0.035935 0.035853 0
0.261231 0.625434 0
0.357106 0.526827 0
0.126536 0.762986 0
0.504482 0.118838 0
0.770781 0.125915 0
0.483781 0.410831 0

CELLS 438 1752
3 5 87 85
3 36 86 88
3 125 218 183
3 120 183 218
3 75 145 215
3 26 205 27
3 67 189 187
3 26 67 205
3 79 95 97
3 79 154 95
3 4 87 5
3 36 88 37
3 80 224 150
3 141 200 212
3 200 234 212
3 145 228 215
3 73 243 247
3 195 196 214
3 197 247 243
3 125 173 220
3 77 231 151
3 67 237 189
3 196 232 214
3 130 169 233
3 86 222 88
3 50 155 51
3 44 154 79
3 38 39 2
3 1 65 3
3 82 215 228
3 153 236 188
3 152 204 153
3 22 21 206
3 62 89 63
3 45 162 46
3 127 188 186
3 71 204 152
3 106 217 152
3 71 152 217
3 62 227 89
3 104 217 106
3 85 87 89
3 21 246 206
3 153 188 242
3 78 209 189
3 77 151 240
3 195 214 247
3 50 69 155
3 67 187 236
3 78 192 209
3 69 232 196
3 54 211 55
3 46 162 73
3 167 233 169
3 69 196 248
3 77 164 231
3 27 205 204
3 130 238 169
3 140 201 202
3 55 211 70
3 67 236 205
3 51 155 225
3 4 229 87
3 37 88 230
3 127 186 239
3 45 79 162
3 140 223 201
3 76 201 223
3 89 227 90
3 86 226 222
3 149 163 161
3 84 191 206
3 120 239 184
3 76 223 198
3 54 210 211
3 175 221 178
3 84 213 191
3 85 90 91
3 76 198 156
3 178 221 183
3 147 196 194
3 32 76 156
3 149 208 163
3 75 234 200
3 147 194 207
3 190 191 213
3 74 177 190
3 32 156 33
3 142 159 203
3 166 219 250
3 17 176 74
3 136 163 208
3 16 176 17
3 63 89 87
3 158 161 163
3 177 179 190
3 74 190 213
3 7 91 80
3 34 81 92
3 71 217 202
3 14 170 68
3 104 140 217
3 78 189 237
3 16 174 176
3 15 174 16
3 175 177 176
3 9 164 77
3 136 118 157
3 134 207 110
3 169 171 170
3 10 77 165
3 83 222 226
3 99 96 198
3 94 198 96
3 103 195 197
3 134 147 207
3 126 203 159
3 29 71 202
3 5 85 6
3 102 193 103
3 133 142 203
3 111 199 124
3 35 86 36
3 33 156 81
3 31 201 76
3 12 168 13
3 172 221 175
3 111 113 199
3 157 158 163
3 136 208 199
3 123 203 126
3 129 133 203
3 81 93 92
3 28 204 71
3 138 200 141
3 33 81 34
3 193 207 194
3 15 68 174
3 93 94 95
3 108 110 207
3 9 77 10
3 7 80 8
3 100 103 197
3 118 121 157
3 102 105 193
3 31 76 32
3 95 96 97
3 182 209 192
3 30 201 31
3 138 143 200
3 168 169 170
3 11 72 12
3 133 138 141
3 129 132 133
3 121 123 126
3 98 100 197
3 127 242 188
3 28 71 29
3 103 194 195
3 72 165 166
3 129 203 123
3 135 146 134
3 110 124 134
3 158 159 160
3 146 148 155
3 27 204 28
3 195 194 196
3 113 116 199
3 143 144 145
3 100 102 103
3 35 92 86
3 126 158 157
3 136 157 163
3 14 68 15
3 103 193 194
3 18 74 213
3 105 107 108
3 13 170 14
3 116 118 136
3 25 67 26
3 105 108 193
3 108 109 110
3 11 165 72
3 8 80 164
3 6 85 91
3 113 115 116
3 110 111 124
3 12 72 168
3 134 124 135
3 135 148 146
3 81 94 93
3 116 117 118
3 68 170 171
3 132 138 133
3 123 128 129
3 138 139 143
3 129 131 132
3 118 119 121
3 126 159 158
3 121 122 123
3 171 173 172
3 79 97 162
3 178 183 180
3 30 202 201
3 74 176 177
3 178 180 179
3 10 165 11
3 133 141 142
3 175 178 177
3 180 184 181
3 184 186 185
3 160 211 210
3 13 168 170
3 8 164 9
3 186 188 187
3 167 169 168
3 23 78 24
3 121 126 157
3 181 209 182
3 100 101 102
3 140 202 217
3 35 34 92
3 158 160 161
3 72 166 167
3 30 29 202
3 94 156 198
3 85 89 90
3 108 207 193
3 96 98 97
3 68 171 172
3 17 74 18
3 136 199 116
3 134 146 147
3 172 175 174
3 19 84 20
3 99 100 98
3 102 104 105
3 6 91 7
3 94 96 95
3 179 180 181
3 107 109 108
3 177 178 179
3 109 111 110
3 105 106 107
3 135 149 148
3 115 117 116
3 182 191 190
3 191 192 206
3 182 192 191
3 181 184 185
3 185 186 187
3 111 112 113
3 18 213 19
3 179 181 182
3 153 204 205
3 113 114 115
3 38 37 230
3 3 229 4
3 179 182 190
3 68 172 174
3 137 152 153
3 174 175 176
3 109 216 112
3 185 187 189
3 109 112 111
3 106 137 107
3 117 119 118
3 122 128 123
3 119 122 121
3 112 127 114
3 114 120 115
3 129 128 131
3 72 167 168
3 124 199 208
3 112 114 113
3 117 125 119
3 104 106 105
3 122 130 128
3 19 213 84
3 101 104 102
3 99 101 100
3 132 139 138
3 49 69 50
3 107 216 109
3 135 208 149
3 96 99 98
3 181 185 209
3 52 66 53
3 185 189 209
3 55 70 56
3 53 210 54
3 106 152 137
3 117 218 125
3 56 212 57
3 139 144 143
3 144 150 145
3 81 156 94
3 101 140 104
3 139 151 144
3 47 214 48
3 135 124 208
3 115 218 117
3 112 216 127
3 47 46 73
3 132 219 139
3 99 198 223
3 44 79 45
3 107 137 216
3 139 219 151
3 59 58 75
3 132 131 219
3 53 66 210
3 115 120 218
3 59 215 60
3 56 70 212
3 42 83 43
3 60 82 61
3 99 223 101
3 130 122 220
3 119 125 220
3 47 73 214
3 119 220 122
3 84 206 246
3 153 205 236
3 172 173 221
3 41 222 42
3 131 250 219
3 59 75 215
3 60 215 82
3 101 223 140
3 63 87 64
3 40 88 41
3 42 222 83
3 145 150 228
3 149 161 241
3 148 225 155
3 80 91 224
3 41 88 222
3 90 224 91
3 52 225 66
3 73 162 243
3 92 93 226
3 93 95 249
3 160 210 252
3 147 248 196
3 95 154 249
3 51 225 52
3 159 235 160
3 61 82 227
3 49 232 69
3 48 214 232
3 144 231 150
3 173 238 220
3 69 248 155
3 78 244 192
3 83 249 154
3 77 240 165
3 166 240 219
3 131 128 233
3 57 212 234
3 65 64 229
3 40 39 230
3 25 237 67
3 58 234 75
3 70 211 235
3 24 78 237
3 64 87 229
3 40 230 88
3 171 169 238
3 97 98 243
3 160 235 211
3 114 127 239
3 137 153 242
3 127 216 242
3 146 155 248
3 0 20 246
3 0 246 21
3 160 252 161
3 97 243 162
3 86 92 226
3 61 227 62
3 184 239 186
3 144 151 231
3 66 225 241
3 90 251 224
3 48 232 49
3 151 219 240
3 23 244 78
3 130 220 238
3 161 252 241
3 142 235 159
3 150 224 228
3 130 233 128
3 3 65 229
3 38 230 39
3 70 235 245
3 57 234 58
3 148 241 225
3 187 188 236
3 224 251 228
3 24 237 25
3 141 212 245
3 22 206 244
3 171 238 173
3 22 244 23
3 73 247 214
3 114 239 120
3 165 240 166
3 142 245 235
3 148 149 241
3 98 197 243
3 137 242 216
3 192 244 206
3 195 247 197
3 93 249 226
3 141 245 142
3 20 84 246
3 166 250 167
3 146 248 147
3 70 245 212
3 131 233 250
3 83 226 249
3 66 252 210
3 82 251 227
3 66 241 252
3 90 227 251
3 167 250 233
3 82 228 251
3 154 43 83
3 43 154 44
3 125 221 173
3 221 125 183
3 80 231 164
3 231 80 150
3 120 180 183
3 180 120 184
3 75 143 145
3 143 75 200

CELL_TYPES 438
5
5
5
5
5
5
5
5
5
5
5
5
5
5
5
5
5
5
5
5
5
5
5
5
5
5
5
5
5
5
5
5
5
5
5
5
5
5
5
5
5
5
5
5
5
5
5
5
5
5
5
5
5
5
5
5
5
5
5
5
5
5
5
5
5
5
5
5
5
5
5
5
5
5
5
5
5
5
5
5
5
5
5
5
5
5
5
5
5
5
5
5
5
5
5
5
5
5
5
5
5
5
5
5
5
5
5
5
5
5
5
5
5
5
5
5
5
5
5
5
5
5
5
5
5
5
5
5
5
5
5
5
5
5
5
5
5
5
5
5
5
5
5
5
5
5
5
5
5
5
5
5
5
5
5
5
5
5
5
5
5
5
5
5
5
5
5
5
5
5
5
5
5
5
5
5
5
5
5
5
5
5
5
5
5
5
5
5
5
5
5
5
5
5
5
5
5
5
5
5
5
5
5
5
5
5
5
5
5
5
5
5
5
5
5
5
5
5
5
5
5
5
5
5
5
5
5
5
5
5
5
5
5
5
5
5
5
5
5
5
5
5
5
5
5
5
5
5
5
5
5
5
5
5
5
5
5
5
5
5
5
5
5
5
5
5
5
5
5
5
5
5
5
5
5
5
5
5
5
5
5
5
5
5
5
5
5
5
5
5
5
5
5
5
5
5
5
5
5
5
5
5
5
5
5
5
5
5
5
5
5
5
5
5
5
5
5
5
5
5
5
5
5
5
5
5
5
5
5
5
5
5
5
5
5
5
5
5
5
5
5
5
5
5
5
5
5
5
5
5
5
5
5
5
5
5
5
5
5
5
5
5
5
5
5
5
5
5
5
5
5
5
5
5
5
5
5
5
5
5
5
5
5
5
5
5
5
5
5
5
5
5
5
5
5
5
5
5
5
5
5
5
5
5
5
5
5
5
5
5
5
5
5
5
5
5
5
5
5
5
5
5
5
5
5
5
5
5
5
5
5
5
5
5
5
5
5
5

POINT_DATA 253

SCALARS pt_icell int
LOOKUP_TABLE default
376
28
27
257
257
118
237
237
213
213
206
206
151
177
177
173
104
230
252
252
375
376
404
404
400
400
179
165
165
224
224
148
145
135
221
221
122
256
256
361
361
331
325
429
429
306
303
303
385
385
282
346
346
290
290
289
293
396
396
313
316
380
380
330
360
360
287
179
173
282
289
157
151
303
230
309
145
140
216
306
141
135
316
315
234
118
122
330
331
33
425
237
221
414
296
345
285
378
410
317
280
329
279
174
297
276
291
307
240
283
242
264
302
274
406
312
245
301
266
321
435
268
321
267
300
431
217
373
392
271
392
420
310
207
232
300
231
411
281
308
329
415
415
437
382
436
418
418
409
409
433
386
291
372
429
25
87
217
222
390
377
389
34
172
213
206
417
426
125
368
177
403
324
430
104
261
92
241
241
258
435
286
258
434
435
288
381
398
398
288
258
248
412
227
174
413
344
413
305
273
437
148
224
160
165
5
32
227
300
288
290
51
293
252
299
313
411
220
312
386
388
431
325
329
399
346
421
380
427
360
361
433
385
426
396
408
398
400
403
406
407
424
411
410
404
419
376
413
418
421
426
427
424

SCALARS pt_ic_pos int
LOOKUP_TABLE default
0
0
2
0
2
0
0
2
0
2
0
2
2
0
2
2
2
0
0
2
1
2
0
2
0
2
2
0
2
1
0
2
2
0
1
0
2
1
0
1
0
2
2
0
2
2
1
0
0
2
2
0
2
0
2
0
0
0
2
0
0
0
2
0
1
0
1
1
1
1
1
1
1
2
1
2
1
1
1
1
1
1
1
1
1
1
1
1
1
1
0
1
2
0
2
0
0
0
0
0
2
0
2
0
2
2
0
0
2
2
2
2
0
2
0
0
2
2
2
0
1
2
2
2
1
1
1
0
2
0
0
0
0
0
0
0
0
0
2
0
2
0
2
0
0
2
0
2
0
1
2
0
1
1
1
1
1
2
0
2
0
0
1
2
1
1
0
0
1
1
1
0
0
2
1
1
1
0
1
0
0
0
1
2
2
0
2
0
1
1
2
2
0
2
2
0
2
2
1
1
2
1
2
1
1
1
2
1
2
2
1
1
1
1
1
1
2
2
2
1
1
0
1
1
0
1
1
1
1
2
2
0
1
2
1
2
2
1
1
1
1
1
1
2
1
1
1
1
1
2
1
2
2

