# vtk DataFile Version 2.0
unstructured grid
ASCII
DATASET UNSTRUCTURED_GRID
POINTS 14 float
0                     0                     0                     
1                     0                     0                     
1                     1                     0                     
0                     1                     0                     
1                     0                     1                     
1                     1                     1                     
0                     1                     1                     
0                     0                     1                     
0.5                   0.5                   1                     
1                     0.5                   0.5                   
0.5                   1                     0.5                   
0.5                   0.5                   0                     
0                     0.5                   0.5                   
0.5                   0                     0.5                   

CELLS 24 120
4 12 8 9 10
4 12 8 6 7
4 13 11 1 0
4 9 12 11 13
4 11 12 3 0
4 13 9 12 8
4 10 12 6 3
4 7 12 13 0
4 11 9 10 12
4 2 10 3 11
4 8 10 6 5
4 2 9 11 1
4 9 13 1 4
4 13 8 7 4
4 5 10 2 9
4 5 4 8 9
4 12 8 10 6
4 12 10 11 3
4 12 7 13 8
4 12 11 13 0
4 9 11 10 2
4 13 1 11 9
4 13 9 8 4
4 5 8 10 9

CELL_TYPES 24
10
10
10
10
10
10
10
10
10
10
10
10
10
10
10
10
10
10
10
10
10
10
10
10

POINT_DATA 14

SCALARS func00000 float
LOOKUP_TABLE default
1.0000000
0.0000000
-1.0000000
0.0000000
0.0000000
0.0000000
0.0000000
0.0000000
0.0000000
-0.50000000
-0.50000000
0.0000000
0.50000000
0.50000000


SCALARS func00001 float
LOOKUP_TABLE default
0.0000000
-1.0000000
-2.0000000
-1.0000000
1.0000000
1.0000000
1.0000000
1.0000000
1.0000000
-1.5000000
-1.5000000
-1.0000000
-0.50000000
-0.50000000


SCALARS func00002 float
LOOKUP_TABLE default
-1.0000000
-2.0000000
-3.0000000
-2.0000000
2.0000000
2.0000000
2.0000000
2.0000000
2.0000000
-2.5000000
-2.5000000
-2.0000000
-1.5000000
-1.5000000


SCALARS func00003 float
LOOKUP_TABLE default
-2.0000000
-3.0000000
-4.0000000
-3.0000000
3.0000000
3.0000000
3.0000000
3.0000000
3.0000000
-3.5000000
-3.5000000
-3.0000000
-2.5000000
-2.5000000


