# vtk DataFile Version 2.0
unstructured grid
ASCII
DATASET UNSTRUCTURED_GRID
POINTS 176 float
0                     0                      0.0
1                     0                      0.0
1                     1                      0.0
0                     1                      0.0
0.2                   0.2                    0.0
0.8                   0.2                    0.0
0.8                   0.5                    0.0
0.2                   0.5                    0.0
0.8                   0.8                    0.0
0.2                   0.8                    0.0
0.125                 0                      0.0
0.25                  0                      0.0
0.375                 0                      0.0
0.5                   0                      0.0
0.625                 0                      0.0
0.75                  0                      0.0
0.875                 0                      0.0
1                     0.125                  0.0
1                     0.25                   0.0
1                     0.375                  0.0
1                     0.5                    0.0
1                     0.625                  0.0
1                     0.75                   0.0
1                     0.875                  0.0
0.875                 1                      0.0
0.75                  1                      0.0
0.625                 1                      0.0
0.5                   1                      0.0
0.375                 1                      0.0
0.25                  1                      0.0
0.125                 1                      0.0
0                     0.875                  0.0
0                     0.75                   0.0
0                     0.625                  0.0
0                     0.5                    0.0
0                     0.375                  0.0
0                     0.25                   0.0
0                     0.125                  0.0
0.2                   0.2375                 0.0
0.2                   0.275                  0.0
0.2                   0.3125                 0.0
0.2                   0.35                   0.0
0.2                   0.3875                 0.0
0.2                   0.425                  0.0
0.2                   0.4625                 0.0
0.275                 0.5                    0.0
0.35                  0.5                    0.0
0.425                 0.5                    0.0
0.5                   0.5                    0.0
0.575                 0.5                    0.0
0.65                  0.5                    0.0
0.725                 0.5                    0.0
0.8                   0.4625                 0.0
0.8                   0.425                  0.0
0.8                   0.3875                 0.0
0.8                   0.35                   0.0
0.8                   0.3125                 0.0
0.8                   0.275                  0.0
0.8                   0.2375                 0.0
0.725                 0.2                    0.0
0.65                  0.2                    0.0
0.575                 0.2                    0.0
0.5                   0.2                    0.0
0.425                 0.2                    0.0
0.35                  0.2                    0.0
0.275                 0.2                    0.0
0.8                   0.5375                 0.0
0.8                   0.575                  0.0
0.8                   0.6125                 0.0
0.8                   0.65                   0.0
0.8                   0.6875                 0.0
0.8                   0.725                  0.0
0.8                   0.7625                 0.0
0.725                 0.8                    0.0
0.65                  0.8                    0.0
0.575                 0.8                    0.0
0.5                   0.8                    0.0
0.425                 0.8                    0.0
0.35                  0.8                    0.0
0.275                 0.8                    0.0
0.2                   0.7625                 0.0
0.2                   0.725                  0.0
0.2                   0.6875                 0.0
0.2                   0.65                   0.0
0.2                   0.6125                 0.0
0.2                   0.575                  0.0
0.2                   0.5375                 0.0
0.911676              0.683389               0.0
0.833333              0.902083               0.0
0.198982              0.894244               0.0
0.880905              0.183611               0.0
0.901445              0.83123                0.0
0.213998              0.10316                0.0
0.749167              0.880417               0.0
0.677319              0.904683               0.0
0.322681              0.0953168              0.0
0.68554               0.109829               0.0
0.309737              0.899464               0.0
0.919881              0.919896               0.0
0.906751              0.091811               0.0
0.0853424             0.429841               0.0
0.925459              0.461803               0.0
0.912695              0.540684               0.0
0.0912796             0.342486               0.0
0.844567              0.420086               0.0
0.844137              0.4907                 0.0
0.40457               0.895116               0.0
0.595429              0.104868               0.0
0.834433              0.350401               0.0
0.156763              0.389038               0.0
0.517046              0.121488               0.0
0.482954              0.878509               0.0
0.427104              0.116686               0.0
0.572896              0.883313               0.0
0.128864              0.221312               0.0
0.150123              0.452271               0.0
0.909883              0.354433               0.0
0.160351              0.760782               0.0
0.103403              0.494083               0.0
0.833101              0.680493               0.0
0.854838              0.269308               0.0
0.164857              0.329809               0.0
0.843901              0.551747               0.0
0.167285              0.49782                0.0
0.103604              0.137828               0.0
0.862607              0.746602               0.0
0.0800654             0.570605               0.0
0.0573642             0.0653245              0.0
0.151335              0.547938               0.0
0.103431              0.820904               0.0
0.804749              0.111655               0.0
0.0872381             0.919918               0.0
0.0974438             0.651014               0.0
0.088946              0.718026               0.0
0.157328              0.615359               0.0
0.157724              0.686812               0.0
0.862671              0.614852               0.0
0.140714              0.28123                0.0
0.580025              0.651688               0.0
0.437748              0.642667               0.0
0.363853              0.661754               0.0
0.635991              0.638246               0.0
0.266412              0.701342               0.0
0.733554              0.598658               0.0
0.621201              0.713303               0.0
0.643453              0.56713                0.0
0.378658              0.586697               0.0
0.356467              0.73287                0.0
0.516012              0.554084               0.0
0.483807              0.745916               0.0
0.691102              0.610095               0.0
0.308828              0.689905               0.0
0.732257              0.643858               0.0
0.267702              0.656142               0.0
0.760492              0.572111               0.0
0.239496              0.727889               0.0
0.302247              0.562659               0.0
0.697709              0.737341               0.0
0.692861              0.671527               0.0
0.307065              0.628473               0.0
0.747919              0.695694               0.0
0.250956              0.602965               0.0
0.754126              0.744107               0.0
0.238376              0.546937               0.0
0.7006                0.557999               0.0
0.299367              0.742001               0.0
0.764289              0.62312                0.0
0.235693              0.67688                0.0
0.420812              0.71312                0.0
0.579                 0.58688                0.0
0.537269              0.716319               0.0
0.512296              0.633645               0.0
0.461619              0.569515               0.0
0.478386              0.690333               0.0
0.768893              0.660034               0.0
0.23087               0.639697               0.0

CELLS 288 1152
3 21 87 22
3 24 88 25
3 89 30 29
3 23 98 2
3 24 98 88
3 98 24 2
3 99 17 1
3 16 99 1
3 96 60 59
3 96 15 14
3 94 26 25
3 94 73 74
3 93 73 94
3 25 93 94
3 97 78 79
3 97 29 28
3 29 97 89
3 93 8 73
3 8 93 88
3 93 25 88
3 95 65 64
3 92 65 95
3 95 12 11
3 11 92 95
3 92 4 65
3 17 90 18
3 17 99 90
3 91 8 88
3 91 23 22
3 91 98 23
3 91 88 98
3 100 35 34
3 101 20 19
3 20 102 21
3 106 28 27
3 107 14 13
3 109 42 41
3 61 110 62
3 77 111 76
3 12 112 13
3 26 113 27
3 101 102 20
3 100 103 35
3 95 112 12
3 94 113 26
3 109 43 42
3 95 64 112
3 112 64 63
3 94 74 113
3 113 74 75
3 108 55 54
3 104 105 101
3 101 105 102
3 111 106 27
3 113 111 27
3 110 107 13
3 112 110 13
3 43 115 44
3 117 80 81
3 118 100 34
3 120 58 57
3 109 121 103
3 116 101 19
3 109 115 43
3 80 117 9
3 70 119 69
3 40 121 41
3 121 109 41
3 38 4 114
3 116 104 101
3 75 76 113
3 76 111 113
3 63 62 112
3 62 110 112
3 116 120 108
3 106 78 97
3 106 77 78
3 28 106 97
3 111 77 106
3 107 60 96
3 107 61 60
3 14 107 96
3 110 61 107
3 105 52 6
3 122 102 105
3 118 123 115
3 4 124 114
3 125 72 8
3 92 124 4
3 44 123 7
3 44 115 123
3 91 125 8
3 123 86 7
3 66 67 122
3 105 66 122
3 105 6 66
3 72 125 71
3 119 125 87
3 100 109 103
3 109 100 115
3 118 115 100
3 79 9 89
3 97 79 89
3 71 119 70
3 71 125 119
3 52 104 53
3 52 105 104
3 34 126 118
3 126 34 33
3 0 127 10
3 124 127 37
3 127 124 10
3 127 0 37
3 128 123 118
3 117 129 9
3 130 59 5
3 59 130 96
3 31 129 32
3 129 89 9
3 126 128 118
3 128 86 123
3 86 128 85
3 108 56 55
3 120 56 108
3 56 120 57
3 10 92 11
3 10 124 92
3 104 54 53
3 108 54 104
3 104 116 108
3 36 124 37
3 22 125 91
3 125 22 87
3 90 130 5
3 130 16 15
3 130 99 16
3 15 96 130
3 130 90 99
3 131 30 89
3 129 131 89
3 131 31 3
3 31 131 129
3 30 131 3
3 133 32 129
3 117 133 129
3 135 81 82
3 81 135 117
3 132 126 33
3 85 134 84
3 134 85 128
3 32 133 33
3 132 33 133
3 84 134 83
3 83 135 82
3 135 133 117
3 135 132 133
3 135 83 134
3 126 134 128
3 134 126 132
3 132 135 134
3 137 40 39
3 121 40 137
3 121 137 103
3 69 136 68
3 102 122 136
3 69 119 136
3 136 119 87
3 21 136 87
3 136 21 102
3 137 38 114
3 38 137 39
3 136 67 68
3 67 136 122
3 36 137 114
3 137 36 103
3 35 103 36
3 114 124 36
3 120 18 90
3 18 120 116
3 116 19 18
3 58 90 5
3 58 120 90
3 141 150 145
3 140 151 147
3 152 143 150
3 153 142 151
3 66 154 67
3 80 155 81
3 158 141 144
3 141 158 150
3 159 140 146
3 140 159 151
3 152 150 158
3 153 151 159
3 76 149 77
3 48 148 49
3 49 145 50
3 146 47 46
3 146 140 139
3 144 75 74
3 144 141 138
3 77 147 78
3 157 74 73
3 74 157 144
3 144 157 158
3 156 46 45
3 46 156 146
3 146 156 159
3 153 159 161
3 159 156 161
3 152 158 160
3 158 157 160
3 157 162 160
3 162 157 73
3 156 163 161
3 163 156 45
3 164 150 143
3 165 151 142
3 168 139 140
3 147 168 140
3 169 138 141
3 145 169 141
3 169 171 138
3 168 173 139
3 170 173 149
3 172 171 148
3 154 164 143
3 155 165 142
3 50 164 51
3 164 50 145
3 150 164 145
3 78 165 79
3 165 78 147
3 151 165 147
3 167 83 82
3 142 153 167
3 155 142 167
3 166 69 68
3 143 152 166
3 154 143 166
3 86 85 163
3 85 161 163
3 84 161 85
3 72 71 162
3 71 160 162
3 70 160 71
3 170 75 144
3 138 170 144
3 168 77 149
3 77 168 147
3 149 173 168
3 7 86 163
3 45 7 163
3 169 49 148
3 49 169 145
3 148 171 169
3 172 47 146
3 139 172 146
3 172 48 47
3 148 48 172
3 170 76 75
3 149 76 170
3 155 82 81
3 167 82 155
3 154 68 67
3 166 68 154
3 160 174 152
3 174 166 152
3 161 175 153
3 175 167 153
3 174 69 166
3 175 83 167
3 83 175 84
3 175 161 84
3 69 174 70
3 174 160 70
3 170 138 171
3 172 139 171
3 139 173 171
3 170 171 173
3 66 51 154
3 51 66 6
3 164 154 51
3 80 79 155
3 79 80 9
3 165 155 79
3 72 73 8
3 72 162 73

CELL_TYPES 288
5
5
5
5
5
5
5
5
5
5
5
5
5
5
5
5
5
5
5
5
5
5
5
5
5
5
5
5
5
5
5
5
5
5
5
5
5
5
5
5
5
5
5
5
5
5
5
5
5
5
5
5
5
5
5
5
5
5
5
5
5
5
5
5
5
5
5
5
5
5
5
5
5
5
5
5
5
5
5
5
5
5
5
5
5
5
5
5
5
5
5
5
5
5
5
5
5
5
5
5
5
5
5
5
5
5
5
5
5
5
5
5
5
5
5
5
5
5
5
5
5
5
5
5
5
5
5
5
5
5
5
5
5
5
5
5
5
5
5
5
5
5
5
5
5
5
5
5
5
5
5
5
5
5
5
5
5
5
5
5
5
5
5
5
5
5
5
5
5
5
5
5
5
5
5
5
5
5
5
5
5
5
5
5
5
5
5
5
5
5
5
5
5
5
5
5
5
5
5
5
5
5
5
5
5
5
5
5
5
5
5
5
5
5
5
5
5
5
5
5
5
5
5
5
5
5
5
5
5
5
5
5
5
5
5
5
5
5
5
5
5
5
5
5
5
5
5
5
5
5
5
5
5
5
5
5
5
5
5
5
5
5
5
5
5
5
5
5
5
5
5
5
5
5
5
5
5
5
5
5
5
5
5
5
5
5
5
5

POINT_DATA 3

SCALARS func00000 float
LOOKUP_TABLE default
1.0000000
0.0000000
-1.0000000


SCALARS func00001 float
LOOKUP_TABLE default
0.0000000
1.0000000
1.0000000


SCALARS func00002 float
LOOKUP_TABLE default
0.0000000
0.0000000
1.0000000


